------------------------------------------------------------
          Invoking FHI-aims ...

          When using FHI-aims, please cite the following reference:

            Volker Blum, Ralf Gehrke, Felix Hanke, Paula Havu,
            Ville Havu, Xinguo Ren, Karsten Reuter, and Matthias Scheffler,
            'Ab Initio Molecular Simulations with Numeric Atom-Centered Orbitals',
            Computer Physics Communications 180, 2175-2196 (2009)

          In addition, many other developments in FHI-aims are likely important for
          your particular application. A partial list of references is given at the end of
          this file. Thank you for giving credit to the authors of these developments.

          For any questions about FHI-aims, please visit our slack channel at

            https://fhi-aims.slack.com

          and our main development and support site at

            https://aims-git.rz-berlin.mpg.de .

          The latter site, in particular, has a wiki to collect information, as well
          as an issue tracker to log discussions, suggest improvements, and report issues
          or bugs. https://aims-git.rz-berlin.mpg.de is also the main development site
          of the project and all new and updated code versions can be obtained there.
          Please send an email to aims-coordinators@fhi-berlin.mpg.de and we will add
          you to these sites. They are for you and everyone is welcome there.

------------------------------------------------------------



  Date     :  20201010, Time     :  200547.089
  Time zero on CPU 1             :   0.114061100000000E+01  s.
  Internal wall clock time zero  :           371592347.089  s.

  FHI-aims created a unique identifier for this run for later identification
  aims_uuid : 0653D7B3-44FF-4607-A508-A2D048B2E84E

  Build configuration of the current instance of FHI-aims
  -------------------------------------------------------
  FHI-aims version      : 200821
  Commit number         : bd9143b41
  CMake host system     : Linux-3.10.0-1127.13.1.el7.x86_64
  CMake version         : 3.15.3
  Fortran compiler      : /share/apps/spack/envs/fgci-centos7-generic/software/openmpi/3.1.4/l567div/bin/mpifort (Intel) version 19.1.0.20191121
  Fortran compiler flags: -O3 -ip -fp-model precise
  C compiler            : /share/apps/spack/envs/fgci-centos7-generic/software/intel-parallel-studio/cluster.2020.0/b3waxrc/bin/icc (Intel) version 19.1.0.20191121
  C compiler flags      : -O3 -ip -fp-model precise -std=gnu99
  Using MPI
  Using ScaLAPACK
  Using LibXC
  Using i-PI
  Using RLSY
  Linking against: /m/triton/scratch/phys/project/FHI-aims/lib/openmpi/scalapack-2.1.0/libscalapack.a
                   /share/apps/spack/envs/fgci-centos7-generic/software/intel-parallel-studio/cluster.2020.0/b3waxrc/compilers_and_libraries_2020.0.166/linux/mkl/lib/intel64/libmkl_intel_lp64.so
                   /share/apps/spack/envs/fgci-centos7-generic/software/intel-parallel-studio/cluster.2020.0/b3waxrc/compilers_and_libraries_2020.0.166/linux/mkl/lib/intel64/libmkl_sequential.so
                   /share/apps/spack/envs/fgci-centos7-generic/software/intel-parallel-studio/cluster.2020.0/b3waxrc/compilers_and_libraries_2020.0.166/linux/mkl/lib/intel64/libmkl_core.so

  Using       48 parallel tasks.
  Task        0 on host pe65.int.triton.aalto.fi reporting.
  Task        1 on host pe65.int.triton.aalto.fi reporting.
  Task        2 on host pe65.int.triton.aalto.fi reporting.
  Task        3 on host pe65.int.triton.aalto.fi reporting.
  Task        4 on host pe65.int.triton.aalto.fi reporting.
  Task        5 on host pe65.int.triton.aalto.fi reporting.
  Task        6 on host pe65.int.triton.aalto.fi reporting.
  Task        7 on host pe65.int.triton.aalto.fi reporting.
  Task        8 on host pe65.int.triton.aalto.fi reporting.
  Task        9 on host pe65.int.triton.aalto.fi reporting.
  Task       10 on host pe65.int.triton.aalto.fi reporting.
  Task       11 on host pe65.int.triton.aalto.fi reporting.
  Task       12 on host pe65.int.triton.aalto.fi reporting.
  Task       13 on host pe65.int.triton.aalto.fi reporting.
  Task       14 on host pe65.int.triton.aalto.fi reporting.
  Task       15 on host pe65.int.triton.aalto.fi reporting.
  Task       16 on host pe65.int.triton.aalto.fi reporting.
  Task       17 on host pe65.int.triton.aalto.fi reporting.
  Task       18 on host pe65.int.triton.aalto.fi reporting.
  Task       19 on host pe65.int.triton.aalto.fi reporting.
  Task       20 on host pe65.int.triton.aalto.fi reporting.
  Task       21 on host pe65.int.triton.aalto.fi reporting.
  Task       22 on host pe65.int.triton.aalto.fi reporting.
  Task       23 on host pe65.int.triton.aalto.fi reporting.
  Task       24 on host pe66.int.triton.aalto.fi reporting.
  Task       25 on host pe66.int.triton.aalto.fi reporting.
  Task       26 on host pe66.int.triton.aalto.fi reporting.
  Task       27 on host pe66.int.triton.aalto.fi reporting.
  Task       28 on host pe66.int.triton.aalto.fi reporting.
  Task       29 on host pe66.int.triton.aalto.fi reporting.
  Task       30 on host pe66.int.triton.aalto.fi reporting.
  Task       31 on host pe66.int.triton.aalto.fi reporting.
  Task       32 on host pe66.int.triton.aalto.fi reporting.
  Task       33 on host pe66.int.triton.aalto.fi reporting.
  Task       34 on host pe66.int.triton.aalto.fi reporting.
  Task       35 on host pe66.int.triton.aalto.fi reporting.
  Task       36 on host pe66.int.triton.aalto.fi reporting.
  Task       37 on host pe66.int.triton.aalto.fi reporting.
  Task       38 on host pe66.int.triton.aalto.fi reporting.
  Task       39 on host pe66.int.triton.aalto.fi reporting.
  Task       40 on host pe66.int.triton.aalto.fi reporting.
  Task       41 on host pe66.int.triton.aalto.fi reporting.
  Task       42 on host pe66.int.triton.aalto.fi reporting.
  Task       43 on host pe66.int.triton.aalto.fi reporting.
  Task       44 on host pe66.int.triton.aalto.fi reporting.
  Task       45 on host pe66.int.triton.aalto.fi reporting.
  Task       46 on host pe66.int.triton.aalto.fi reporting.
  Task       47 on host pe66.int.triton.aalto.fi reporting.

  Performing system and environment tests:
  *** Environment variable OMP_NUM_THREADS is not set
  *** For performance reasons you might want to set it to 1
  | Checking for ScaLAPACK...
  | Testing pdtran()...
  | All pdtran() tests passed.

  Obtaining array dimensions for all initial allocations:
  
  -----------------------------------------------------------------------
  Parsing control.in (first pass over file, find array dimensions only).
  The contents of control.in will be repeated verbatim below
  unless switched off by setting 'verbatim_writeout .false.' .
  in the first line of control.in .
  -----------------------------------------------------------------------
  
  #########################################################################################
  #
  #  Volker Blum, 2017 : Input file for FHI-aims
  #
  #  Input file control.in : All computational details for simple molecule
  #
  #########################################################################################
    #
    #  Physical model settings
    #
      xc               pbe
      charge           0.
      spin             none
      relativistic     none
    #
    #  SCF convergence settings
    #
      occupation_type  gaussian 0.01
      relax_geometry bfgs 1.e-2
  #
  ################################################################################
  #
  #  FHI-aims code project
  # Volker Blum, Fritz Haber Institute Berlin, 2009
  #
  #  Suggested "tight" defaults for H atom (to be pasted into control.in file)
  #
  ################################################################################
    species        H
  #     global species definitions
      nucleus             1
      mass                1.00794
  #
      l_hartree           6
  #
      cut_pot             4.0  2.0  1.0
      basis_dep_cutoff    1e-4
  #
      radial_base         24 7.0
      radial_multiplier   2
      angular_grids       specified
        division   0.1930   50
        division   0.3175  110
        division   0.4293  194
        division   0.5066  302
        division   0.5626  434
  #      division   0.5922  590
  #      division   0.6227  974
  #      division   0.6868 1202
  #      outer_grid  770
        outer_grid  434
  ################################################################################
  #
  #  Definition of "minimal" basis
  #
  ################################################################################
  #     valence basis states
      valence      1  s   1.
  #     ion occupancy
      ion_occ      1  s   0.5
  ################################################################################
  #
  #  Suggested additional basis functions. For production calculations,
  #  uncomment them one after another (the most important basis functions are
  #  listed first).
  #
  #  Basis constructed for dimers: 0.5 A, 0.7 A, 1.0 A, 1.5 A, 2.5 A
  #
  ################################################################################
  #  "First tier" - improvements: -1014.90 meV to -62.69 meV
       hydro 2 s 2.1
       hydro 2 p 3.5
  #  "Second tier" - improvements: -12.89 meV to -1.83 meV
       hydro 1 s 0.85
       hydro 2 p 3.7
       hydro 2 s 1.2
       hydro 3 d 7
  #  "Third tier" - improvements: -0.25 meV to -0.12 meV
       hydro 4 f 11.2
       hydro 3 p 4.8
       hydro 4 d 9
       hydro 3 s 3.2
  ################################################################################
  #
  # For methods that use the localized form of the "resolution of identity" for
  # the two-electron Coulomb operator (RI_method LVL), particularly Hartree-Fock and
  # hybrid density functional calculations, the highest accuracy can be obtained by
  # uncommenting the line beginning with "for_aux"  below, thus adding an extra g radial
  # function to the construction of the product basis set for the expansion.
  # See Ref. New J. Phys. 17, 093020 (2015) for more information, particularly Figs. 1 and 6.
  #
  ################################################################################
  #
  # for_aux hydro 5 g 6.0
  ################################################################################
  #
  #  FHI-aims code project
  # Volker Blum, Fritz Haber Institute Berlin, 2009
  #
  #  Suggested "tight" defaults for C atom (to be pasted into control.in file)
  #
  ################################################################################
    species        C
  #     global species definitions
      nucleus             6
      mass                12.0107
  #
      l_hartree           6
  #
      cut_pot             4.0  2.0  1.0
      basis_dep_cutoff    1e-4
  #
      radial_base         34 7.0
      radial_multiplier   2
      angular_grids specified
        division   0.2187   50
        division   0.4416  110
        division   0.6335  194
        division   0.7727  302
        division   0.8772  434
  #      division   0.9334  590
  #      division   0.9924  770
  #      division   1.0230  974
  #      division   1.5020 1202
  #     outer_grid  974
        outer_grid  434
  ################################################################################
  #
  #  Definition of "minimal" basis
  #
  ################################################################################
  #     valence basis states
      valence      2  s   2.
      valence      2  p   2.
  #     ion occupancy
      ion_occ      2  s   1.
      ion_occ      2  p   1.
  ################################################################################
  #
  #  Suggested additional basis functions. For production calculations,
  #  uncomment them one after another (the most important basis functions are
  #  listed first).
  #
  #  Constructed for dimers: 1.0 A, 1.25 A, 1.5 A, 2.0 A, 3.0 A
  #
  ################################################################################
  #  "First tier" - improvements: -1214.57 meV to -155.61 meV
       hydro 2 p 1.7
       hydro 3 d 6
       hydro 2 s 4.9
  #  "Second tier" - improvements: -67.75 meV to -5.23 meV
       hydro 4 f 9.8
       hydro 3 p 5.2
       hydro 3 s 4.3
       hydro 5 g 14.4
       hydro 3 d 6.2
  #  "Third tier" - improvements: -2.43 meV to -0.60 meV
       hydro 2 p 5.6
       hydro 2 s 1.4
       hydro 3 d 4.9
       hydro 4 f 11.2
  #  "Fourth tier" - improvements: -0.39 meV to -0.18 meV
  #     hydro 2 p 2.1
  #     hydro 5 g 16.4
  #     hydro 4 d 13.2
  #     hydro 3 s 13.6
  #     hydro 4 f 17.6
  #  Further basis functions - improvements: -0.08 meV and below
  #     hydro 3 s 2
  #     hydro 3 p 6
  #     hydro 4 d 20
  ################################################################################
  #
  # For methods that use the localized form of the "resolution of identity" for
  # the two-electron Coulomb operator (RI_method LVL), particularly Hartree-Fock and
  # hybrid density functional calculations, the highest accuracy can be obtained by
  # uncommenting the line beginning with "for_aux"  below, thus adding an extra g radial
  # function to the construction of the product basis set for the expansion.
  # See Ref. New J. Phys. 17, 093020 (2015) for more information, particularly Figs. 1 and 6.
  #
  ################################################################################
  #
  # for_aux hydro 5 g 6.0
  ################################################################################
  #
  #  FHI-aims code project
  # Volker Blum, Fritz Haber Institute Berlin, 2009
  #
  #  Suggested "tight" defaults for O atom (to be pasted into control.in file)
  #
  ################################################################################
    species        O
  #     global species definitions
      nucleus             8
      mass                15.9994
  #
      l_hartree           6
  #
      cut_pot             4.0  2.0  1.0
      basis_dep_cutoff    1e-4
  #
      radial_base         36 7.0
      radial_multiplier   2
       angular_grids specified
        division   0.1817   50
        division   0.3417  110
        division   0.4949  194
        division   0.6251  302
        division   0.8014  434
  #      division   0.8507  590
  #      division   0.8762  770
  #      division   0.9023  974
  #      division   1.2339 1202
  #      outer_grid 974
        outer_grid  434
  ################################################################################
  #
  #  Definition of "minimal" basis
  #
  ################################################################################
  #     valence basis states
      valence      2  s   2.
      valence      2  p   4.
  #     ion occupancy
      ion_occ      2  s   1.
      ion_occ      2  p   3.
  ################################################################################
  #
  #  Suggested additional basis functions. For production calculations,
  #  uncomment them one after another (the most important basis functions are
  #  listed first).
  #
  #  Constructed for dimers: 1.0 A, 1.208 A, 1.5 A, 2.0 A, 3.0 A
  #
  ################################################################################
  #  "First tier" - improvements: -699.05 meV to -159.38 meV
       hydro 2 p 1.8
       hydro 3 d 7.6
       hydro 3 s 6.4
  #  "Second tier" - improvements: -49.91 meV to -5.39 meV
       hydro 4 f 11.6
       hydro 3 p 6.2
       hydro 3 d 5.6
       hydro 5 g 17.6
       hydro 1 s 0.75
  #  "Third tier" - improvements: -2.83 meV to -0.50 meV
       ionic 2 p auto
       hydro 4 f 10.8
       hydro 4 d 4.7
       hydro 2 s 6.8
  #  "Fourth tier" - improvements: -0.40 meV to -0.12 meV
  #     hydro 3 p 5
  #     hydro 3 s 3.3
  #     hydro 5 g 15.6
  #     hydro 4 f 17.6
  #     hydro 4 d 14
  # Further basis functions - -0.08 meV and below
  #     hydro 3 s 2.1
  #     hydro 4 d 11.6
  #     hydro 3 p 16
  #     hydro 2 s 17.2
  ################################################################################
  #
  # For methods that use the localized form of the "resolution of identity" for
  # the two-electron Coulomb operator (RI_method LVL), particularly Hartree-Fock and
  # hybrid density functional calculations, the highest accuracy can be obtained by
  # uncommenting the line beginning with "for_aux"  below, thus adding an extra g radial
  # function to the construction of the product basis set for the expansion.
  # See Ref. New J. Phys. 17, 093020 (2015) for more information, particularly Figs. 1 and 6.
  #
  ################################################################################
  #
  # for_aux hydro 5 g 6.0
  
  -----------------------------------------------------------------------
  Completed first pass over input file control.in .
  -----------------------------------------------------------------------
  
  
  -----------------------------------------------------------------------
  Parsing geometry.in (first pass over file, find array dimensions only).
  The contents of geometry.in will be repeated verbatim below
  unless switched off by setting 'verbatim_writeout .false.' .
  in the first line of geometry.in .
  -----------------------------------------------------------------------
  
  #=======================================================
  # FHI-aims file: ethanol.in
  # Created using the Atomic Simulation Environment (ASE)
  # Wed Oct  7 16:49:21 2020
  #=======================================================
  atom 1.1681809999999999 -0.4003820000000000 0.0000000000000000 C
  atom 0.0000000000000000 0.5594620000000000 0.0000000000000000 C
  atom -1.1900830000000000 -0.2276690000000000 0.0000000000000000 O
  atom -1.9466230000000000 0.3815250000000000 0.0000000000000000 H
  atom 0.0425570000000000 1.2075080000000000 0.8869330000000000 H
  atom 0.0425570000000000 1.2075080000000000 -0.8869330000000000 H
  atom 2.1158910000000000 0.1448000000000000 0.0000000000000000 H
  atom 1.1285989999999999 -1.0372340000000000 0.8858810000000000 H
  atom 1.1285989999999999 -1.0372340000000000 -0.8858810000000000 H
  
  -----------------------------------------------------------------------
  Completed first pass over input file geometry.in .
  -----------------------------------------------------------------------
  

  Basic array size parameters:
  | Number of species                 :        3
  | Number of atoms                   :        9
  | Max. basis fn. angular momentum   :        4
  | Max. atomic/ionic basis occupied n:        2
  | Max. number of basis fn. types    :        3
  | Max. radial fns per species/type  :       12
  | Max. logarithmic grid size        :     1301
  | Max. radial integration grid size :       73
  | Max. angular integration grid size:      434
  | Max. angular grid division number :        8
  | Radial grid for Hartree potential :     1301
  | Number of spin channels           :        1

------------------------------------------------------------
          Reading file control.in.
------------------------------------------------------------
  XC: Using PBE gradient-corrected functionals.
  Charge =   0.000000E+00: Neutral system requested explicitly.
  Spin treatment: No spin polarisation.
  Non-relativistic treatment of kinetic energy.
  Occupation type: Gaussian broadening, width =   0.100000E-01 eV.
  Geometry relaxation: Modified BFGS - TRM (trust radius method) for lattice optimization.
  Convergence accuracy for geometry relaxation: Maximum force <   0.100000E-01 eV/A.
 
  Reading configuration options for species H                   .
  | Found nuclear charge :   1.0000
  | Found atomic mass :    1.00794000000000      amu
  | Found l_max for Hartree potential  :   6
  | Found cutoff potl. onset [A], width [A], scale factor :    4.00000    2.00000    1.00000
  | Threshold for basis-dependent cutoff potential is   0.100000E-03
  | Found data for basic radial integration grid :    24 points, outermost radius =    7.000 A
  | Found multiplier for basic radial grid :   2
  | Found angular grid specification: user-specified.
  | Specified grid contains     6 separate shells.
  | Check grid settings after all constraints further below.
  | Found free-atom valence shell :  1 s   1.000
  | Found free-ion valence shell :  1 s   0.500
  | Found hydrogenic basis function :  2 s   2.100
  | Found hydrogenic basis function :  2 p   3.500
  | Found hydrogenic basis function :  1 s   0.850
  | Found hydrogenic basis function :  2 p   3.700
  | Found hydrogenic basis function :  2 s   1.200
  | Found hydrogenic basis function :  3 d   7.000
  | Found hydrogenic basis function :  4 f  11.200
  | Found hydrogenic basis function :  3 p   4.800
  | Found hydrogenic basis function :  4 d   9.000
  | Found hydrogenic basis function :  3 s   3.200
  Species H                   : Missing cutoff potential type.
  Defaulting to exp(1/x)/(1-x)^2 type cutoff potential.
  Species H : No 'logarithmic' tag. Using default grid for free atom:
  | Default logarithmic grid data [bohr] : 0.1000E-03 0.1000E+03 0.1012E+01
  Species H : On-site basis accuracy parameter (for Gram-Schmidt orthonormalisation) not specified.
  Using default value basis_acc =  0.1000000E-03.
  Species H                   : Using default innermost maximum threshold i_radial=  2 for radial functions.
  Species H                   : Default cutoff onset for free atom density etc. : 0.40000000E+01 AA.
  Species H                   : Basic radial grid will be enhanced according to radial_multiplier =   2, to contain    49 grid points.
 
  Reading configuration options for species C                   .
  | Found nuclear charge :   6.0000
  | Found atomic mass :    12.0107000000000      amu
  | Found l_max for Hartree potential  :   6
  | Found cutoff potl. onset [A], width [A], scale factor :    4.00000    2.00000    1.00000
  | Threshold for basis-dependent cutoff potential is   0.100000E-03
  | Found data for basic radial integration grid :    34 points, outermost radius =    7.000 A
  | Found multiplier for basic radial grid :   2
  | Found angular grid specification: user-specified.
  | Specified grid contains     6 separate shells.
  | Check grid settings after all constraints further below.
  | Found free-atom valence shell :  2 s   2.000
  | Found free-atom valence shell :  2 p   2.000
  | Found free-ion valence shell :  2 s   1.000
  | Found free-ion valence shell :  2 p   1.000
  | Found hydrogenic basis function :  2 p   1.700
  | Found hydrogenic basis function :  3 d   6.000
  | Found hydrogenic basis function :  2 s   4.900
  | Found hydrogenic basis function :  4 f   9.800
  | Found hydrogenic basis function :  3 p   5.200
  | Found hydrogenic basis function :  3 s   4.300
  | Found hydrogenic basis function :  5 g  14.400
  | Found hydrogenic basis function :  3 d   6.200
  | Found hydrogenic basis function :  2 p   5.600
  | Found hydrogenic basis function :  2 s   1.400
  | Found hydrogenic basis function :  3 d   4.900
  | Found hydrogenic basis function :  4 f  11.200
  Species C                   : Missing cutoff potential type.
  Defaulting to exp(1/x)/(1-x)^2 type cutoff potential.
  Species C : No 'logarithmic' tag. Using default grid for free atom:
  | Default logarithmic grid data [bohr] : 0.1000E-03 0.1000E+03 0.1012E+01
  Species C : On-site basis accuracy parameter (for Gram-Schmidt orthonormalisation) not specified.
  Using default value basis_acc =  0.1000000E-03.
  Species C                   : Using default innermost maximum threshold i_radial=  2 for radial functions.
  Species C                   : Default cutoff onset for free atom density etc. : 0.40000000E+01 AA.
  Species C                   : Basic radial grid will be enhanced according to radial_multiplier =   2, to contain    69 grid points.
 
  Reading configuration options for species O                   .
  | Found nuclear charge :   8.0000
  | Found atomic mass :    15.9994000000000      amu
  | Found l_max for Hartree potential  :   6
  | Found cutoff potl. onset [A], width [A], scale factor :    4.00000    2.00000    1.00000
  | Threshold for basis-dependent cutoff potential is   0.100000E-03
  | Found data for basic radial integration grid :    36 points, outermost radius =    7.000 A
  | Found multiplier for basic radial grid :   2
  | Found angular grid specification: user-specified.
  | Specified grid contains     6 separate shells.
  | Check grid settings after all constraints further below.
  | Found free-atom valence shell :  2 s   2.000
  | Found free-atom valence shell :  2 p   4.000
  | Found free-ion valence shell :  2 s   1.000
  | Found free-ion valence shell :  2 p   3.000
  | Found hydrogenic basis function :  2 p   1.800
  | Found hydrogenic basis function :  3 d   7.600
  | Found hydrogenic basis function :  3 s   6.400
  | Found hydrogenic basis function :  4 f  11.600
  | Found hydrogenic basis function :  3 p   6.200
  | Found hydrogenic basis function :  3 d   5.600
  | Found hydrogenic basis function :  5 g  17.600
  | Found hydrogenic basis function :  1 s   0.750
  | Found ionic basis function :  2 p , default cutoff radius.
  | Found hydrogenic basis function :  4 f  10.800
  | Found hydrogenic basis function :  4 d   4.700
  | Found hydrogenic basis function :  2 s   6.800
  Species O                   : Missing cutoff potential type.
  Defaulting to exp(1/x)/(1-x)^2 type cutoff potential.
  Species O : No 'logarithmic' tag. Using default grid for free atom:
  | Default logarithmic grid data [bohr] : 0.1000E-03 0.1000E+03 0.1012E+01
  | Will include ionic basis functions of  2.0-fold positive O                    ion.
  Species O : On-site basis accuracy parameter (for Gram-Schmidt orthonormalisation) not specified.
  Using default value basis_acc =  0.1000000E-03.
  Species O                   : Using default innermost maximum threshold i_radial=  2 for radial functions.
  Species O                   : Default cutoff onset for free atom density etc. : 0.40000000E+01 AA.
  Species O                   : Basic radial grid will be enhanced according to radial_multiplier =   2, to contain    73 grid points.
 
  Finished reading input file 'control.in'.
 
------------------------------------------------------------


------------------------------------------------------------
          Reading geometry description geometry.in.
------------------------------------------------------------
  | Maximum stacksize for task 0: unlimited
  | Maximum stacksize for task 1: unlimited
  | Maximum stacksize for task 2: unlimited
  | Maximum stacksize for task 3: unlimited
  | Maximum stacksize for task 4: unlimited
  | Maximum stacksize for task 5: unlimited
  | Maximum stacksize for task 6: unlimited
  | Maximum stacksize for task 7: unlimited
  | Maximum stacksize for task 8: unlimited
  | Maximum stacksize for task 9: unlimited
  | Maximum stacksize for task 10: unlimited
  | Maximum stacksize for task 11: unlimited
  | Maximum stacksize for task 12: unlimited
  | Maximum stacksize for task 13: unlimited
  | Maximum stacksize for task 14: unlimited
  | Maximum stacksize for task 15: unlimited
  | Maximum stacksize for task 16: unlimited
  | Maximum stacksize for task 17: unlimited
  | Maximum stacksize for task 18: unlimited
  | Maximum stacksize for task 19: unlimited
  | Maximum stacksize for task 20: unlimited
  | Maximum stacksize for task 21: unlimited
  | Maximum stacksize for task 22: unlimited
  | Maximum stacksize for task 23: unlimited
  | Maximum stacksize for task 24: unlimited
  | Maximum stacksize for task 25: unlimited
  | Maximum stacksize for task 26: unlimited
  | Maximum stacksize for task 27: unlimited
  | Maximum stacksize for task 28: unlimited
  | Maximum stacksize for task 29: unlimited
  | Maximum stacksize for task 30: unlimited
  | Maximum stacksize for task 31: unlimited
  | Maximum stacksize for task 32: unlimited
  | Maximum stacksize for task 33: unlimited
  | Maximum stacksize for task 34: unlimited
  | Maximum stacksize for task 35: unlimited
  | Maximum stacksize for task 36: unlimited
  | Maximum stacksize for task 37: unlimited
  | Maximum stacksize for task 38: unlimited
  | Maximum stacksize for task 39: unlimited
  | Maximum stacksize for task 40: unlimited
  | Maximum stacksize for task 41: unlimited
  | Maximum stacksize for task 42: unlimited
  | Maximum stacksize for task 43: unlimited
  | Maximum stacksize for task 44: unlimited
  | Maximum stacksize for task 45: unlimited
  | Maximum stacksize for task 46: unlimited
  | Maximum stacksize for task 47: unlimited
  | Current stacksize for task 0: unlimited
  | Current stacksize for task 1: unlimited
  | Current stacksize for task 2: unlimited
  | Current stacksize for task 3: unlimited
  | Current stacksize for task 4: unlimited
  | Current stacksize for task 5: unlimited
  | Current stacksize for task 6: unlimited
  | Current stacksize for task 7: unlimited
  | Current stacksize for task 8: unlimited
  | Current stacksize for task 9: unlimited
  | Current stacksize for task 10: unlimited
  | Current stacksize for task 11: unlimited
  | Current stacksize for task 12: unlimited
  | Current stacksize for task 13: unlimited
  | Current stacksize for task 14: unlimited
  | Current stacksize for task 15: unlimited
  | Current stacksize for task 16: unlimited
  | Current stacksize for task 17: unlimited
  | Current stacksize for task 18: unlimited
  | Current stacksize for task 19: unlimited
  | Current stacksize for task 20: unlimited
  | Current stacksize for task 21: unlimited
  | Current stacksize for task 22: unlimited
  | Current stacksize for task 23: unlimited
  | Current stacksize for task 24: unlimited
  | Current stacksize for task 25: unlimited
  | Current stacksize for task 26: unlimited
  | Current stacksize for task 27: unlimited
  | Current stacksize for task 28: unlimited
  | Current stacksize for task 29: unlimited
  | Current stacksize for task 30: unlimited
  | Current stacksize for task 31: unlimited
  | Current stacksize for task 32: unlimited
  | Current stacksize for task 33: unlimited
  | Current stacksize for task 34: unlimited
  | Current stacksize for task 35: unlimited
  | Current stacksize for task 36: unlimited
  | Current stacksize for task 37: unlimited
  | Current stacksize for task 38: unlimited
  | Current stacksize for task 39: unlimited
  | Current stacksize for task 40: unlimited
  | Current stacksize for task 41: unlimited
  | Current stacksize for task 42: unlimited
  | Current stacksize for task 43: unlimited
  | Current stacksize for task 44: unlimited
  | Current stacksize for task 45: unlimited
  | Current stacksize for task 46: unlimited
  | Current stacksize for task 47: unlimited
 
  Consistency checks are next.
 
  MPI_IN_PLACE appears to work with this MPI implementation.
  | Keeping use_mpi_in_place .true. (see manual).
  Target number of points in a grid batch is not set. Defaulting to  100
  Method for grid partitioning is not set. Defaulting to parallel hash+maxmin partitioning.
  Batch size limit is not set. Defaulting to    200
  By default, will store active basis functions for each batch.
  If in need of memory, prune_basis_once .false. can be used to disable this option.
  communication_type for Hartree potential was not specified.
  Defaulting to calc_hartree .
  Defaulting to Pulay charge density mixer.
  Pulay mixer: Number of relevant iterations not set.
  Defaulting to    8 iterations.
  Pulay mixer: Number of initial linear mixing iterations not set.
  Defaulting to    0 iterations.
  Work space size for distributed Hartree potential not set.
  Defaulting to   0.200000E+03 MB.
  Mixing parameter for charge density mixing has not been set.
  Using default: charge_mix_param =     0.0500.
  The mixing parameter will be adjusted in iteration number     2 of the first full s.c.f. cycle only.
  Algorithm-dependent basis array size parameters:
  | n_max_pulay                         :        8
  Maximum number of self-consistency iterations not provided.
  Presetting  1000 iterations.
  Presetting      1001 iterations before the initial mixing cycle
  is restarted anyway using the sc_init_iter criterion / keyword.
  Presetting a factor      1.000 between actual scf density residual
  and density convergence criterion sc_accuracy_rho below which sc_init_iter
  takes no effect.
 * No s.c.f. convergence criteria (sc_accuracy_*) were provided in control.in.
 * The run will proceed with a reasonable default guess, but please check whether.
 * the s.c.f. cycles seem to take too much or too little time.
  No maximum number of relaxation steps, defaulting to     1000
  Default initial Hessian is Lindh matrix (thres = 15.00) plus  0.200000E+01 eV/A^2 times unity.
  No maximum energy tolerance for TRM/BFGS moves, defaulting to   0.100000E-02
  Maximum energy tolerance by which TRM/BFGS trajectory may increase over multiple steps:   0.300000E-02
  No harmonic length scale. Defaulting to   0.250000E-01 A.
  No trust radius initializer. Defaulting to   0.200000E+00 A.
 * Notice: The s.c.f. convergence criterion sc_accuracy_rho was not provided.
 * We used to stop in this case, and ask the user to provide reasonable
 * scf convergence criteria. However, this led some users to employ criteria
 * that led to extremely long run times, e.g., for simple relaxation.
 * We now preset a default value for sc_accuracy_rho if it is not set.
 * You may still wish to check if this setting is too tight or too loose for your needs.
 * Based on n_atoms, FHI-aims chose sc_accuracy_rho =  0.122474E-05 .
  Force calculation: scf convergence accuracy of forces not set.
  Defaulting to 'sc_accuracy_forces not_checked'.
  Handling of forces: Unphysical translation and rotation will be removed from forces.
  No accuracy limit for integral partition fn. given. Defaulting to  0.1000E-14.
  No threshold value for u(r) in integrations given. Defaulting to  0.1000E-05.
  No accuracy for occupation numbers given. Defaulting to  0.1000E-12.
  No threshold value for occupation numbers given. Defaulting to  0.0000E+00.
  No accuracy for fermi level given. Defaulting to  0.1000E-19.
  Maximum # of iterations to find E_F not set. Defaulting to  200.
  Preferred method for the eigenvalue solver ('KS_method') not specified in 'control.in'.
  Calling BLACS routine to test compilation state
  Since ScaLAPACK support is enabled, defaulting to ELPA (via ELSI).
  Will not use alltoall communication since running on < 1024 CPUs.
  Threshold for basis singularities not set.
  Default threshold for basis singularities:  0.1000E-04
  partition_type (choice of integration weights) for integrals was not specified.
  | Using a version of the partition function of Stratmann and coworkers ('stratmann_sparse').
  | At each grid point, the set of atoms used to build the partition table is smoothly restricted to
  | only those atoms whose free-atom density would be non-zero at that grid point.
  Partitioning for Hartree potential was not defined. Using partition_type for integrals.
  | Adjusted default value of keyword multip_moments_threshold to:       0.10000000E-11
  | This value may affect high angular momentum components of the Hartree potential in periodic systems.
  No q(lm)/r^(l+1) cutoff set for long-range Hartree potential.
  | Using default value of  0.100000E-09 .
  | Verify using the multipole_threshold keyword.
  Defaulting to new monopole extrapolation.
  Density update method: automatic selection selected.
  Geometry relaxation: A file "geometry.in.next_step" is written out by default after each step.
  | This file contains the geometry of the current relaxation step as well as
  | the current Hessian matrix needed to restart the relaxation algorithm.
  | If you do not want part or all of this information, use the keywords
  | "write_restart_geometry" or "hessian_to_restart_geometry" to switch the output off.
  Charge integration errors on the 3D integration grid will be compensated
  by explicit normalization and distribution of residual charges.
  Use the "compensate_multipole_errors" flag to change this behaviour.
  Input structure read successfully.
  The structure contains        9 atoms,  and a total of         26.000 electrons.

  Input geometry:
  | No unit cell requested.
  | Atomic structure:
  |       Atom                x [A]            y [A]            z [A]
  |    1: Species C             1.16818100       -0.40038200        0.00000000
  |    2: Species C             0.00000000        0.55946200        0.00000000
  |    3: Species O            -1.19008300       -0.22766900        0.00000000
  |    4: Species H            -1.94662300        0.38152500        0.00000000
  |    5: Species H             0.04255700        1.20750800        0.88693300
  |    6: Species H             0.04255700        1.20750800       -0.88693300
  |    7: Species H             2.11589100        0.14480000        0.00000000
  |    8: Species H             1.12859900       -1.03723400        0.88588100
  |    9: Species H             1.12859900       -1.03723400       -0.88588100
  | The smallest distance between any two atoms is         0.97132389 AA.
  | The first atom of this pair is atom number                      3 .
  | The second atom of this pair is atom number                     4 .

  Number of empty states per atom not set in control.in - providing a guess from actual geometry.
  | Total number of empty states used during s.c.f. cycle:       18
  If you use a very high smearing, use empty_states (per atom!) in control.in to increase this value.

  Structure-dependent array size parameters: 
  | Maximum number of distinct radial functions  :       41
  | Maximum number of basis functions            :      351
  | Number of Kohn-Sham states (occupied + empty):       31
------------------------------------------------------------

------------------------------------------------------------
          Preparing all fixed parts of the calculation.
------------------------------------------------------------
  Determining machine precision:
    2.225073858507201E-308
  Setting up grids for atomic and cluster calculations.

  Creating wave function, potential, and density for free atoms.

  Species: H

  List of occupied orbitals and eigenvalues:
    n    l              occ      energy [Ha]    energy [eV]
    1    0           1.0000        -0.238382        -6.4867


  Species: C

  List of occupied orbitals and eigenvalues:
    n    l              occ      energy [Ha]    energy [eV]
    1    0           2.0000       -10.041232      -273.2358
    2    0           2.0000        -0.504327       -13.7234
    2    1           2.0000        -0.193750        -5.2722


  Species: O

  List of occupied orbitals and eigenvalues:
    n    l              occ      energy [Ha]    energy [eV]
    1    0           2.0000       -18.898576      -514.2564
    2    0           2.0000        -0.878795       -23.9132
    2    1           4.0000        -0.332075        -9.0362


  Adding cutoff potential to free-atom effective potential.
  Creating fixed part of basis set: Ionic, confined, hydrogenic.
 
  H                    hydrogenic:
 
  List of hydrogenic basis orbitals: 
    n    l      effective z      eigenvalue [eV]  inner max. [A]     outer max. [A]     outer radius [A]   
    2    0         2.100000       -14.9965           0.193243           1.317208           5.373006
    2    1         3.500000       -41.6672           0.602369           0.602369           4.056063
    1    0         0.850000        -9.8292           0.624871           0.624871           5.373006
    2    1         3.700000       -46.5653           0.573622           0.573622           3.910002
    2    0         1.200000        -4.5995           0.334980           2.228188           5.505995
    3    2         7.000000       -74.0753           0.680699           0.680699           3.769201
    4    3        11.200000      -106.6685           0.759869           0.759869           3.633470
    3    1         4.800000       -34.8303           0.330910           1.317208           5.179521
    4    2         9.000000       -68.8787           0.397510           1.254346           4.472792
    3    0         3.200000       -15.4178           0.122931           2.147950           5.439094
 
 
  C                    hydrogenic:
 
  List of hydrogenic basis orbitals: 
    n    l      effective z      eigenvalue [eV]  inner max. [A]     outer max. [A]     outer radius [A]   
    2    1         1.700000        -9.8152           1.245706           1.245706           5.401630
    3    2         6.000000       -54.4226           0.792453           0.792453           4.178599
    2    0         4.900000       -81.6681           0.082559           0.562749           3.353238
    4    3         9.800000       -81.6681           0.863254           0.863254           4.028125
    3    1         5.200000       -40.8774           0.305389           1.215618           4.898362
    3    0         4.300000       -27.9508           0.091041           1.610311           5.401630
    5    4        14.400000      -112.8510           0.917666           0.917666           3.883070
    3    2         6.200000       -58.1113           0.763917           0.763917           4.077671
    2    1         5.600000      -106.6686           0.375932           0.375932           2.967371
    2    0         1.400000        -6.5336           0.287281           1.958203           5.468070
    3    2         4.900000       -36.2967           0.975508           0.975508           4.838844
    4    3        11.200000      -106.6686           0.754635           0.754635           3.652826
 
 
  O                    ion:

  List of free ionic orbitals and eigenvalues:
    n    l      energy [Ha]    energy [eV]
    1    0       -20.455140      -556.6127
    2    0        -2.132302       -58.0229
    2    1        -1.577530       -42.9268


  List of ionic basis orbitals and eigenvalues:
    n    l      energy [Ha]    energy [eV]    outer radius [A]
    2    1        -1.577525       -42.9266       3.541477

 
  O                    hydrogenic:
 
  List of hydrogenic basis orbitals: 
    n    l      effective z      eigenvalue [eV]  inner max. [A]     outer max. [A]     outer radius [A]   
    2    1         1.800000       -11.0118           1.178562           1.178562           5.432602
    3    2         7.600000       -87.3182           0.624125           0.624125           3.541477
    3    0         6.400000       -61.9209           0.061167           1.081902           4.306578
    4    3        11.600000      -114.4238           0.731631           0.731631           3.585037
    3    1         6.200000       -58.1113           0.255680           1.030270           4.306578
    3    2         5.600000       -47.4081           0.847233           0.847233           4.413171
    5    4        17.600000      -168.5799           0.749740           0.749740           3.372465
    1    0         0.750000        -7.6499           0.705284           0.705284           5.366593
    4    3        10.800000       -99.1854           0.787313           0.787313           3.764702
    4    2         4.700000       -18.6841           0.758962           2.365807           5.499423
    2    0         6.800000      -157.2818           0.059689           0.406863           2.739620
 
  Creating atomic-like basis functions for current effective potential.

  Species H                   :

  List of atomic basis orbitals and eigenvalues:
    n    l      energy [Ha]    energy [eV]    outer radius [A]
    1    0        -0.238382        -6.4867       5.373006


  Species C                   :

  List of atomic basis orbitals and eigenvalues:
    n    l      energy [Ha]    energy [eV]    outer radius [A]
    1    0       -10.041232      -273.2358       1.934409
    2    0        -0.504327       -13.7234       5.271162
    2    1        -0.193750        -5.2722       5.401630


  Species O                   :

  List of atomic basis orbitals and eigenvalues:
    n    l      energy [Ha]    energy [eV]    outer radius [A]
    1    0       -18.898576      -514.2564       1.415765
    2    0        -0.878795       -23.9132       5.048385
    2    1        -0.332075        -9.0362       5.301386

  Assembling full basis from fixed parts.
  | Species H :   atomic orbital   1 s accepted.
  | Species H :    hydro orbital   2 s accepted.
  | Species H :    hydro orbital   1 s accepted.
  | Species H :    hydro orbital   3 s accepted.
  | Species H :    hydro orbital   2 s accepted.
  | Species H :    hydro orbital   2 p accepted.
  | Species H :    hydro orbital   2 p accepted.
  | Species H :    hydro orbital   3 p accepted.
  | Species H :    hydro orbital   3 d accepted.
  | Species H :    hydro orbital   4 d accepted.
  | Species H :    hydro orbital   4 f accepted.
  | Species C :   atomic orbital   1 s accepted.
  | Species C :    hydro orbital   2 s accepted.
  | Species C :   atomic orbital   2 s accepted.
  | Species C :    hydro orbital   3 s accepted.
  | Species C :    hydro orbital   2 s accepted.
  | Species C :    hydro orbital   2 p accepted.
  | Species C :    hydro orbital   3 p accepted.
  | Species C :   atomic orbital   2 p accepted.
  | Species C :    hydro orbital   2 p accepted.
  | Species C :    hydro orbital   3 d accepted.
  | Species C :    hydro orbital   3 d accepted.
  | Species C :    hydro orbital   3 d accepted.
  | Species C :    hydro orbital   4 f accepted.
  | Species C :    hydro orbital   4 f accepted.
  | Species C :    hydro orbital   5 g accepted.
  | Species O :   atomic orbital   1 s accepted.
  | Species O :    hydro orbital   2 s accepted.
  | Species O :    hydro orbital   3 s accepted.
  | Species O :   atomic orbital   2 s accepted.
  | Species O :    hydro orbital   1 s accepted.
  | Species O :    ionic orbital   2 p accepted.
  | Species O :    hydro orbital   3 p accepted.
  | Species O :   atomic orbital   2 p accepted.
  | Species O :    hydro orbital   2 p accepted.
  | Species O :    hydro orbital   3 d accepted.
  | Species O :    hydro orbital   3 d accepted.
  | Species O :    hydro orbital   4 d accepted.
  | Species O :    hydro orbital   4 f accepted.
  | Species O :    hydro orbital   4 f accepted.
  | Species O :    hydro orbital   5 g accepted.
 
  Basis size parameters after reduction:
  | Total number of radial functions:       41
  | Total number of basis functions :      351
 
  Per-task memory consumption for arrays in subroutine allocate_ext:
  |          10.252436MB.
  Testing on-site integration grid accuracy.
  |  Species  Function  <phi|h_atom|phi> (log., in eV)  <phi|h_atom|phi> (rad., in eV)
           1        1                 -6.4869821809                 -6.4870742227
           1        2                 13.5044133542                 13.5041049177
           1        3                 32.7854418792                 32.7779770519
           1        4                258.9366022214                258.8527264557 ***
           1        5                 32.1465387269                 32.0784491607 ***
           1        6                 28.8558651799                 28.8558652046
           1        7                 59.6361831893                 59.6362535845
           1        8                 74.7144690671                 74.7124118932
           1        9                 60.2733718049                 60.2733715484
           1       10                 90.2068647897                 90.2068607740
           1       11                 94.8804231648                 94.8804235014
           2       12               -273.2358277112               -273.2358261765
           2       13                -10.7624923123                -10.7625144012
           2       14                 17.4634079027                 17.4634252127
           2       15                 53.0363661832                 53.0366180446
           2       16                 28.2951370363                 28.3096342185
           2       17                  7.3539511053                  7.3539498821
           2       18                 13.2785516557                 13.2785482782
           2       19                 52.6305668887                 52.6347753954
           2       20                 57.3406419932                 57.3408246487
           2       21                 29.4320778347                 29.4320780959
           2       22                 54.8753777694                 54.8752901936
           2       23                 61.0182690512                 61.0200884921
           2       24                 77.8257383582                 77.8257383349
           2       25                 96.6023653907                 96.6023641306
           2       26                 93.4537491195                 93.4537492066
           3       27               -514.2564144315               -514.2564099626
           3       28                -18.5657651303                -18.5658165511
           3       29                 13.7522515728                 13.7522399072
           3       30                186.4163036766                186.4174940510
           3       31                 91.7989627858                 91.7999505861
           3       32                 -8.0102020892                 -8.0102019239
           3       33                 25.2069284591                 25.2069289682
           3       34                 23.2739732070                 23.2739165524
           3       35                 44.5062475383                 44.5069406813
           3       36                 45.8243383617                 45.8243383676
           3       37                 52.1840606465                 52.1840622440
           3       38                 20.1830035670                 20.1830147384
           3       39                 85.4074185510                 85.4074185820
           3       40                115.1019976159                115.1020000403
           3       41                142.0983717303                142.0983717340
 * Note: Onsite integrals marked "***" above are less accurate than
 * onsite_accuracy_threshold =    0.03000 eV. Usually, this is harmless.
 * When in doubt, tighten the "radial" and/or "radial_multiplier" flags to check.

  Preparing densities etc. for the partition functions (integrals / Hartree potential).

  Preparations completed.
  max(cpu_time)          :      0.233 s.
  Wall clock time (cpu1) :      0.233 s.
------------------------------------------------------------

------------------------------------------------------------
          Begin self-consistency loop: Initialization.

          Date     :  20201010, Time     :  200547.597
------------------------------------------------------------

  Initializing index lists of integration centers etc. from given atomic structure:
  | Number of centers in hartree potential         :         9
  | Number of centers in hartree multipole         :         9
  | Number of centers in electron density summation:         9
  | Number of centers in basis integrals           :         9
  | Number of centers in integrals                 :         9
  | Number of centers in hamiltonian               :         9

  Initializing relaxation algorithms.
  Finished initialization of distributed Hessian storage.
  | Global dimension:        27
  | BLACS block size:         1
  | Number of workers:       27

  * Using 48 tasks for Scalapack Eigenvalue solver.
  Detailed listing of tasks and assigned k-points:
  (for non-periodic systems, the "k-point" denotes an internal label only)
   Task     0 k-point     1 on pe65.int.triton.aalto.fi
   Task     1 k-point     1 on pe65.int.triton.aalto.fi
   Task     2 k-point     1 on pe65.int.triton.aalto.fi
   Task     3 k-point     1 on pe65.int.triton.aalto.fi
   Task     4 k-point     1 on pe65.int.triton.aalto.fi
   Task     5 k-point     1 on pe65.int.triton.aalto.fi
   Task     6 k-point     1 on pe65.int.triton.aalto.fi
   Task     7 k-point     1 on pe65.int.triton.aalto.fi
   Task     8 k-point     1 on pe65.int.triton.aalto.fi
   Task     9 k-point     1 on pe65.int.triton.aalto.fi
   Task    10 k-point     1 on pe65.int.triton.aalto.fi
   Task    11 k-point     1 on pe65.int.triton.aalto.fi
   Task    12 k-point     1 on pe65.int.triton.aalto.fi
   Task    13 k-point     1 on pe65.int.triton.aalto.fi
   Task    14 k-point     1 on pe65.int.triton.aalto.fi
   Task    15 k-point     1 on pe65.int.triton.aalto.fi
   Task    16 k-point     1 on pe65.int.triton.aalto.fi
   Task    17 k-point     1 on pe65.int.triton.aalto.fi
   Task    18 k-point     1 on pe65.int.triton.aalto.fi
   Task    19 k-point     1 on pe65.int.triton.aalto.fi
   Task    20 k-point     1 on pe65.int.triton.aalto.fi
   Task    21 k-point     1 on pe65.int.triton.aalto.fi
   Task    22 k-point     1 on pe65.int.triton.aalto.fi
   Task    23 k-point     1 on pe65.int.triton.aalto.fi
   Task    24 k-point     1 on pe66.int.triton.aalto.fi
   Task    25 k-point     1 on pe66.int.triton.aalto.fi
   Task    26 k-point     1 on pe66.int.triton.aalto.fi
   Task    27 k-point     1 on pe66.int.triton.aalto.fi
   Task    28 k-point     1 on pe66.int.triton.aalto.fi
   Task    29 k-point     1 on pe66.int.triton.aalto.fi
   Task    30 k-point     1 on pe66.int.triton.aalto.fi
   Task    31 k-point     1 on pe66.int.triton.aalto.fi
   Task    32 k-point     1 on pe66.int.triton.aalto.fi
   Task    33 k-point     1 on pe66.int.triton.aalto.fi
   Task    34 k-point     1 on pe66.int.triton.aalto.fi
   Task    35 k-point     1 on pe66.int.triton.aalto.fi
   Task    36 k-point     1 on pe66.int.triton.aalto.fi
   Task    37 k-point     1 on pe66.int.triton.aalto.fi
   Task    38 k-point     1 on pe66.int.triton.aalto.fi
   Task    39 k-point     1 on pe66.int.triton.aalto.fi
   Task    40 k-point     1 on pe66.int.triton.aalto.fi
   Task    41 k-point     1 on pe66.int.triton.aalto.fi
   Task    42 k-point     1 on pe66.int.triton.aalto.fi
   Task    43 k-point     1 on pe66.int.triton.aalto.fi
   Task    44 k-point     1 on pe66.int.triton.aalto.fi
   Task    45 k-point     1 on pe66.int.triton.aalto.fi
   Task    46 k-point     1 on pe66.int.triton.aalto.fi
   Task    47 k-point     1 on pe66.int.triton.aalto.fi
  Tasks:    48 split into      8 X      6 BLACS grid
  Calculating block size based on n_basis =          351  max_nprow =            8  max_npcol =            6
  ScaLAPACK block size set to:           16
  Allocating        0.023 MB for ovlp
  Allocating        0.023 MB for ham
  Allocating        0.023 MB for eigenvec
  Required Scalapack workspace - INTEGER:            1  REAL:             1
  Partitioning the integration grid into batches with parallel hashing+maxmin method.
  | Number of batches:     1863
  | Maximal batch size:     199
  | Minimal batch size:       9
  | Average batch size:      76.755
  | Standard deviation of batch sizes:      23.371

  Integration load balanced across    48 MPI tasks.
  Work distribution over tasks is as follows:
  Task     0 has       2987 integration points.
  Task     1 has       2987 integration points.
  Task     2 has       2971 integration points.
  Task     3 has       2944 integration points.
  Task     4 has       2982 integration points.
  Task     5 has       3049 integration points.
  Task     6 has       2927 integration points.
  Task     7 has       2985 integration points.
  Task     8 has       3050 integration points.
  Task     9 has       3045 integration points.
  Task    10 has       3052 integration points.
  Task    11 has       2951 integration points.
  Task    12 has       2955 integration points.
  Task    13 has       2977 integration points.
  Task    14 has       2953 integration points.
  Task    15 has       2928 integration points.
  Task    16 has       3026 integration points.
  Task    17 has       2982 integration points.
  Task    18 has       2963 integration points.
  Task    19 has       2951 integration points.
  Task    20 has       3055 integration points.
  Task    21 has       2994 integration points.
  Task    22 has       2989 integration points.
  Task    23 has       2933 integration points.
  Task    24 has       2954 integration points.
  Task    25 has       2954 integration points.
  Task    26 has       3029 integration points.
  Task    27 has       3024 integration points.
  Task    28 has       2932 integration points.
  Task    29 has       2934 integration points.
  Task    30 has       2962 integration points.
  Task    31 has       2959 integration points.
  Task    32 has       3008 integration points.
  Task    33 has       2955 integration points.
  Task    34 has       2948 integration points.
  Task    35 has       2966 integration points.
  Task    36 has       2966 integration points.
  Task    37 has       2955 integration points.
  Task    38 has       2957 integration points.
  Task    39 has       2929 integration points.
  Task    40 has       2934 integration points.
  Task    41 has       3046 integration points.
  Task    42 has       2981 integration points.
  Task    43 has       2951 integration points.
  Task    44 has       3027 integration points.
  Task    45 has       2989 integration points.
  Task    46 has       3048 integration points.
  Task    47 has       2950 integration points.
  Initializing partition tables, free-atom densities, potentials, etc. across the integration grid (initialize_grid_storage).
  | initialize_grid_storage: Actual outermost partition radius vs. multipole_radius_free
  | (-- VB: in principle, multipole_radius_free should be larger, hence this output)
  | Species        1: Confinement radius =              6.000000000000000 AA, multipole_radius_free =              6.071692442739658 AA.
  | Species        1: outer_partition_radius set to              6.071692442739658 AA .
  | Species        2: Confinement radius =              6.000000000000000 AA, multipole_radius_free =              6.029870734432609 AA.
  | Species        2: outer_partition_radius set to              6.029870734432609 AA .
  | Species        3: Confinement radius =              6.000000000000000 AA, multipole_radius_free =              6.064445521808699 AA.
  | Species        3: outer_partition_radius set to              6.064445521808699 AA .
  | The sparse table of interatomic distances needs          0.90 kbyte instead of         0.65 kbyte of memory.
  | Using the partition_type stratmann_smoother will reduce your memory usage.
  | Net number of integration points:   142994
  | of which are non-zero points    :   118323
  Renormalizing the initial density to the exact electron count on the 3D integration grid.
  | Initial density: Formal number of electrons (from input files) :      26.0000000000
  | Integrated number of electrons on 3D grid     :      25.9999880332
  | Charge integration error                      :      -0.0000119668
  | Normalization factor for density and gradient :       1.0000004603
  Renormalizing the free-atom superposition density to the exact electron count on the 3D integration grid.
  | Formal number of electrons (from input files) :      26.0000000000
  | Integrated number of electrons on 3D grid     :      25.9999880332
  | Charge integration error                      :      -0.0000119668
  | Normalization factor for density and gradient :       1.0000004603
  Obtaining max. number of non-zero basis functions in each batch (get_n_compute_maxes).
  | Maximal number of non-zero basis functions:      351 in task     0
  | Maximal number of non-zero basis functions:      351 in task     1
  | Maximal number of non-zero basis functions:      351 in task     2
  | Maximal number of non-zero basis functions:      351 in task     3
  | Maximal number of non-zero basis functions:      351 in task     4
  | Maximal number of non-zero basis functions:      351 in task     5
  | Maximal number of non-zero basis functions:      351 in task     6
  | Maximal number of non-zero basis functions:      351 in task     7
  | Maximal number of non-zero basis functions:      351 in task     8
  | Maximal number of non-zero basis functions:      351 in task     9
  | Maximal number of non-zero basis functions:      351 in task    10
  | Maximal number of non-zero basis functions:      351 in task    11
  | Maximal number of non-zero basis functions:      351 in task    12
  | Maximal number of non-zero basis functions:      351 in task    13
  | Maximal number of non-zero basis functions:      351 in task    14
  | Maximal number of non-zero basis functions:      351 in task    15
  | Maximal number of non-zero basis functions:      351 in task    16
  | Maximal number of non-zero basis functions:      351 in task    17
  | Maximal number of non-zero basis functions:      351 in task    18
  | Maximal number of non-zero basis functions:      351 in task    19
  | Maximal number of non-zero basis functions:      351 in task    20
  | Maximal number of non-zero basis functions:      351 in task    21
  | Maximal number of non-zero basis functions:      351 in task    22
  | Maximal number of non-zero basis functions:      351 in task    23
  | Maximal number of non-zero basis functions:      351 in task    24
  | Maximal number of non-zero basis functions:      351 in task    25
  | Maximal number of non-zero basis functions:      351 in task    26
  | Maximal number of non-zero basis functions:      351 in task    27
  | Maximal number of non-zero basis functions:      351 in task    28
  | Maximal number of non-zero basis functions:      351 in task    29
  | Maximal number of non-zero basis functions:      351 in task    30
  | Maximal number of non-zero basis functions:      351 in task    31
  | Maximal number of non-zero basis functions:      351 in task    32
  | Maximal number of non-zero basis functions:      351 in task    33
  | Maximal number of non-zero basis functions:      351 in task    34
  | Maximal number of non-zero basis functions:      351 in task    35
  | Maximal number of non-zero basis functions:      351 in task    36
  | Maximal number of non-zero basis functions:      351 in task    37
  | Maximal number of non-zero basis functions:      351 in task    38
  | Maximal number of non-zero basis functions:      351 in task    39
  | Maximal number of non-zero basis functions:      351 in task    40
  | Maximal number of non-zero basis functions:      351 in task    41
  | Maximal number of non-zero basis functions:      351 in task    42
  | Maximal number of non-zero basis functions:      351 in task    43
  | Maximal number of non-zero basis functions:      351 in task    44
  | Maximal number of non-zero basis functions:      351 in task    45
  | Maximal number of non-zero basis functions:      351 in task    46
  | Maximal number of non-zero basis functions:      351 in task    47
  Selecting the method for density update.
  Loop over occupied states selected for charge density update.
  Allocating        0.083 MB for KS_eigenvector
  Integrating Hamiltonian matrix: batch-based integration.
  Time summed over all CPUs for integration: real work        2.150 s, elapsed        2.329 s
  Integrating overlap matrix.
  Time summed over all CPUs for integration: real work        0.902 s, elapsed        0.973 s
  Deallocating overlap matrix.

  Updating Kohn-Sham eigenvalues and eigenvectors using ELSI and the ELPA eigensolver.
  Overlap matrix is not singular
  | Lowest and highest eigenvalues :  0.2320E-04,  0.7853E+01
  Finished singularity check of overlap matrix
  | Time :     0.590 s
  Starting ELPA eigensolver
  Finished Cholesky decomposition
  | Time :     0.005 s
  Finished transformation to standard eigenproblem
  | Time :     0.004 s
  Finished solving standard eigenproblem
  | Time :     0.015 s
  Finished back-transformation of eigenvectors
  | Time :     0.000 s

  Obtaining occupation numbers and chemical potential using ELSI.
  | Chemical potential (Fermi level):    -3.71698990 eV
  Writing Kohn-Sham eigenvalues.

  State    Occupation    Eigenvalue [Ha]    Eigenvalue [eV]
      1       2.00000         -18.990140         -516.74799
      2       2.00000         -10.174388         -276.85920
      3       2.00000         -10.154687         -276.32310
      4       2.00000          -1.104960          -30.06749
      5       2.00000          -0.878224          -23.89769
      6       2.00000          -0.734473          -19.98603
      7       2.00000          -0.634015          -17.25244
      8       2.00000          -0.590404          -16.06571
      9       2.00000          -0.548665          -14.92993
     10       2.00000          -0.524841          -14.28164
     11       2.00000          -0.501407          -13.64398
     12       2.00000          -0.472510          -12.85766
     13       2.00000          -0.400899          -10.90902
     14       0.00000          -0.074348           -2.02312
     15       0.00000          -0.054501           -1.48304
     16       0.00000          -0.022802           -0.62048
     17       0.00000          -0.022550           -0.61361
     18       0.00000          -0.009001           -0.24494
     19       0.00000           0.003449            0.09386
     20       0.00000           0.016606            0.45187
     21       0.00000           0.021135            0.57510
     22       0.00000           0.061098            1.66256
     23       0.00000           0.063238            1.72079
     24       0.00000           0.074667            2.03180
     25       0.00000           0.087726            2.38714
     26       0.00000           0.098631            2.68388
     27       0.00000           0.125022            3.40201
     28       0.00000           0.134984            3.67310
     29       0.00000           0.147027            4.00080
     30       0.00000           0.152436            4.14798
     31       0.00000           0.162666            4.42636

  Highest occupied state (VBM) at    -10.90901976 eV
  | Occupation number:      2.00000000

  Lowest unoccupied state (CBM) at    -2.02312432 eV
  | Occupation number:      0.00000000

  Overall HOMO-LUMO gap:      8.88589544 eV.
  Calculating total energy contributions from superposition of free atom densities.

  Total energy components:
  | Sum of eigenvalues            :         -91.41922873 Ha       -2487.64378372 eV
  | XC energy correction          :         -20.88531520 Ha        -568.31834236 eV
  | XC potential correction       :          26.84651079 Ha         730.53072759 eV
  | Free-atom electrostatic energy:         -69.66016567 Ha       -1895.54955246 eV
  | Hartree energy correction     :           0.00000000 Ha           0.00000000 eV
  | Entropy correction            :           0.00000000 Ha           0.00000000 eV
  | ---------------------------
  | Total energy                  :        -155.11819882 Ha       -4220.98095094 eV
  | Total energy, T -> 0          :        -155.11819882 Ha       -4220.98095094 eV  <-- do not rely on this value for anything but (periodic) metals
  | Electronic free energy        :        -155.11819882 Ha       -4220.98095094 eV

  Derived energy quantities:
  | Kinetic energy                :         152.71701436 Ha        4155.64139757 eV
  | Electrostatic energy          :        -286.94989798 Ha       -7808.30400615 eV
  | Energy correction for multipole
  | error in Hartree potential    :           0.00000000 Ha           0.00000000 eV
  | Sum of eigenvalues per atom                           :        -276.40486486 eV
  | Total energy (T->0) per atom                          :        -468.99788344 eV  <-- do not rely on this value for anything but (periodic) metals
  | Electronic free energy per atom                       :        -468.99788344 eV
  Initialize hartree_potential_storage
  Max. number of atoms included in rho_multipole:            9

  End scf initialization - timings             :  max(cpu_time)    wall_clock(cpu1)
  | Time for scf. initialization               :        0.943 s           1.050 s
  | Boundary condition initialization          :        0.000 s           0.000 s
  | Relaxation initialization                  :        0.056 s           0.056 s
  | Integration                                :        0.074 s           0.074 s
  | Solution of K.-S. eqns.                    :        0.727 s           0.819 s
  | Grid partitioning                          :        0.075 s           0.075 s
  | Preloading free-atom quantities on grid    :        0.016 s           0.015 s
  | Free-atom superposition energy             :        0.003 s           0.004 s
  | Total energy evaluation                    :        0.000 s           0.000 s

  Partial memory accounting:
  | Current value for overall tracked memory usage:
  |   Minimum:        0.599 MB (on task 40)
  |   Maximum:        0.635 MB (on task  0)
  |   Average:        0.623 MB
  | Peak value for overall tracked memory usage:
  |   Minimum:        3.617 MB (on task 40 after allocating wave)
  |   Maximum:        3.653 MB (on task  0 after allocating wave)
  |   Average:        3.641 MB
  | Largest tracked array allocation so far:
  |   Minimum:        0.940 MB (hamiltonian_shell on task  0)
  |   Maximum:        0.940 MB (hamiltonian_shell on task  0)
  |   Average:        0.940 MB
  Note:  These values currently only include a subset of arrays which are explicitly tracked.
  The "true" memory usage will be greater.
------------------------------------------------------------

------------------------------------------------------------
          Begin self-consistency iteration #    1

  Date     :  20201010, Time     :  200548.648
------------------------------------------------------------
  Evaluating new KS density.
  Integration grid: deviation in total charge (<rho> - N_e) =   1.065814E-14
  Pulay mixing of updated and previous charge densities.
  Renormalizing the density to the exact electron count on the 3D integration grid.
  | Formal number of electrons (from input files) :      26.0000000000
  | Integrated number of electrons on 3D grid     :      26.0000000000
  | Charge integration error                      :      -0.0000000000
  | Normalization factor for density and gradient :       1.0000000000

  Evaluating partitioned Hartree potential by multipole expansion.
  | Original multipole sum: apparent total charge =  -0.577893E-14
  | Sum of charges compensated after spline to logarithmic grids =   0.300217E-06
  | Analytical far-field extrapolation by fixed multipoles:
  | Hartree multipole sum: apparent total charge =  -0.586502E-14
  Summing up the Hartree potential.
  Time summed over all CPUs for potential: real work        0.626 s, elapsed        0.646 s
  | RMS charge density error from multipole expansion :   0.454374E-03

  Integrating Hamiltonian matrix: batch-based integration.
  Time summed over all CPUs for integration: real work        2.114 s, elapsed        2.284 s

  Updating Kohn-Sham eigenvalues and eigenvectors using ELSI and the ELPA eigensolver.
  Starting ELPA eigensolver
  Finished transformation to standard eigenproblem
  | Time :     0.005 s
  Finished solving standard eigenproblem
  | Time :     0.014 s
  Finished back-transformation of eigenvectors
  | Time :     0.000 s

  Obtaining occupation numbers and chemical potential using ELSI.
  | Chemical potential (Fermi level):    -3.58320513 eV
  Writing Kohn-Sham eigenvalues.

  State    Occupation    Eigenvalue [Ha]    Eigenvalue [eV]
      1       2.00000         -18.956341         -515.82829
      2       2.00000         -10.137278         -275.84938
      3       2.00000         -10.129917         -275.64905
      4       2.00000          -1.086190          -29.55674
      5       2.00000          -0.858662          -23.36539
      6       2.00000          -0.717548          -19.52547
      7       2.00000          -0.617122          -16.79274
      8       2.00000          -0.574109          -15.62230
      9       2.00000          -0.529224          -14.40092
     10       2.00000          -0.506952          -13.79486
     11       2.00000          -0.484573          -13.18591
     12       2.00000          -0.453983          -12.35350
     13       2.00000          -0.383008          -10.42218
     14       0.00000          -0.067598           -1.83943
     15       0.00000          -0.047538           -1.29358
     16       0.00000          -0.017269           -0.46991
     17       0.00000          -0.016884           -0.45945
     18       0.00000          -0.001526           -0.04151
     19       0.00000           0.012024            0.32720
     20       0.00000           0.023179            0.63074
     21       0.00000           0.032645            0.88831
     22       0.00000           0.065543            1.78350
     23       0.00000           0.066964            1.82219
     24       0.00000           0.081308            2.21249
     25       0.00000           0.093422            2.54214
     26       0.00000           0.103381            2.81315
     27       0.00000           0.130599            3.55378
     28       0.00000           0.138362            3.76502
     29       0.00000           0.152511            4.15003
     30       0.00000           0.157387            4.28273
     31       0.00000           0.167124            4.54767

  Highest occupied state (VBM) at    -10.42217686 eV
  | Occupation number:      2.00000000

  Lowest unoccupied state (CBM) at    -1.83943139 eV
  | Occupation number:      0.00000000

  Overall HOMO-LUMO gap:      8.58274547 eV.

  Total energy components:
  | Sum of eigenvalues            :         -90.86981522 Ha       -2472.69348137 eV
  | XC energy correction          :         -20.93739200 Ha        -569.73542420 eV
  | XC potential correction       :          26.91411603 Ha         732.37035978 eV
  | Free-atom electrostatic energy:         -69.66016567 Ha       -1895.54955246 eV
  | Hartree energy correction     :          -0.52726789 Ha         -14.34768929 eV
  | Entropy correction            :           0.00000000 Ha           0.00000000 eV
  | ---------------------------
  | Total energy                  :        -155.08052475 Ha       -4219.95578753 eV
  | Total energy, T -> 0          :        -155.08052475 Ha       -4219.95578753 eV  <-- do not rely on this value for anything but (periodic) metals
  | Electronic free energy        :        -155.08052475 Ha       -4219.95578753 eV

  Derived energy quantities:
  | Kinetic energy                :         153.00394858 Ha        4163.44927471 eV
  | Electrostatic energy          :        -287.14708133 Ha       -7813.66963805 eV
  | Energy correction for multipole
  | error in Hartree potential    :          -0.00076439 Ha          -0.02080004 eV
  | Sum of eigenvalues per atom                           :        -274.74372015 eV
  | Total energy (T->0) per atom                          :        -468.88397639 eV  <-- do not rely on this value for anything but (periodic) metals
  | Electronic free energy per atom                       :        -468.88397639 eV

  Self-consistency convergence accuracy:
  | Change of charge density      :  0.4654E+00
  | Change of sum of eigenvalues  :  0.1495E+02 eV
  | Change of total energy        :  0.1025E+01 eV

  End self-consistency iteration #     1       :  max(cpu_time)    wall_clock(cpu1)
  | Time for this iteration                    :        0.117 s           0.117 s
  | Charge density update                      :        0.028 s           0.028 s
  | Density mixing                             :        0.001 s           0.001 s
  | Hartree multipole update                   :        0.003 s           0.003 s
  | Hartree multipole summation                :        0.014 s           0.014 s
  | Integration                                :        0.050 s           0.049 s
  | Solution of K.-S. eqns.                    :        0.021 s           0.021 s
  | Total energy evaluation                    :        0.000 s           0.000 s

  Partial memory accounting:
  | Current value for overall tracked memory usage:
  |   Minimum:        0.599 MB (on task 40)
  |   Maximum:        0.635 MB (on task  0)
  |   Average:        0.623 MB
  | Peak value for overall tracked memory usage:
  |   Minimum:        3.617 MB (on task 40 after allocating wave)
  |   Maximum:        3.653 MB (on task  0 after allocating wave)
  |   Average:        3.641 MB
  | Largest tracked array allocation so far:
  |   Minimum:        1.599 MB (gradient_basis_wave on task  0)
  |   Maximum:        1.599 MB (gradient_basis_wave on task  0)
  |   Average:        1.599 MB
  Note:  These values currently only include a subset of arrays which are explicitly tracked.
  The "true" memory usage will be greater.
------------------------------------------------------------

------------------------------------------------------------
          Begin self-consistency iteration #    2

  Date     :  20201010, Time     :  200548.769
------------------------------------------------------------
  Evaluating new KS density.
  Integration grid: deviation in total charge (<rho> - N_e) =   7.105427E-15
  Pulay mixing of updated and previous charge densities.
  Renormalizing the density to the exact electron count on the 3D integration grid.
  | Formal number of electrons (from input files) :      26.0000000000
  | Integrated number of electrons on 3D grid     :      26.0000000000
  | Charge integration error                      :       0.0000000000
  | Normalization factor for density and gradient :       1.0000000000

  Evaluating partitioned Hartree potential by multipole expansion.
  | Original multipole sum: apparent total charge =  -0.836323E-15
  | Sum of charges compensated after spline to logarithmic grids =   0.124186E-05
  | Analytical far-field extrapolation by fixed multipoles:
  | Hartree multipole sum: apparent total charge =  -0.159885E-14
  Summing up the Hartree potential.
  Time summed over all CPUs for potential: real work        0.630 s, elapsed        0.667 s
  | RMS charge density error from multipole expansion :   0.401337E-02

  Integrating Hamiltonian matrix: batch-based integration.
  Time summed over all CPUs for integration: real work        2.105 s, elapsed        2.299 s

  Updating Kohn-Sham eigenvalues and eigenvectors using ELSI and the ELPA eigensolver.
  Starting ELPA eigensolver
  Finished transformation to standard eigenproblem
  | Time :     0.004 s
  Finished solving standard eigenproblem
  | Time :     0.016 s
  Finished back-transformation of eigenvectors
  | Time :     0.001 s

  Obtaining occupation numbers and chemical potential using ELSI.
  | Chemical potential (Fermi level):    -2.57057181 eV
  Highest occupied state (VBM) at     -6.85372157 eV
  | Occupation number:      2.00000000

  Lowest unoccupied state (CBM) at    -0.85350180 eV
  | Occupation number:      0.00000000

  Overall HOMO-LUMO gap:      6.00021977 eV.

  Checking to see if s.c.f. parameters should be adjusted.
  The system likely has a gap. Increased the default Pulay mixing parameter (charge_mix_param). Value:   0.200000 .

  Total energy components:
  | Sum of eigenvalues            :         -86.83893934 Ha       -2363.00776807 eV
  | XC energy correction          :         -21.35157673 Ha        -581.00596415 eV
  | XC potential correction       :          27.45130856 Ha         746.98811224 eV
  | Free-atom electrostatic energy:         -69.66016567 Ha       -1895.54955246 eV
  | Hartree energy correction     :          -4.53885542 Ha        -123.50853996 eV
  | Entropy correction            :           0.00000000 Ha           0.00000000 eV
  | ---------------------------
  | Total energy                  :        -154.93822861 Ha       -4216.08371239 eV
[...]
  | Entropy correction            :           0.00000000 Ha           0.00000000 eV
  | ---------------------------
  | Total energy                  :        -154.92217756 Ha       -4215.64694130 eV
  | Total energy, T -> 0          :        -154.92217756 Ha       -4215.64694130 eV  <-- do not rely on this value for anything but (periodic) metals
  | Electronic free energy        :        -154.92217756 Ha       -4215.64694130 eV

  Derived energy quantities:
  | Kinetic energy                :         154.24576281 Ha        4197.24075940 eV
  | Electrostatic energy          :        -287.69991812 Ha       -7828.71309245 eV
  | Energy correction for multipole
  | error in Hartree potential    :          -0.01077745 Ha          -0.29326938 eV
  | Sum of eigenvalues per atom                           :        -260.84079596 eV
  | Total energy (T->0) per atom                          :        -468.40521570 eV  <-- do not rely on this value for anything but (periodic) metals
  | Electronic free energy per atom                       :        -468.40521570 eV

  atomic forces [eV/Ang]:
  -----------------------
  atom #    1
   Hellmann-Feynman              :  0.201240E+00 -0.275218E+00  0.134475E-10
   Ionic forces                  :  0.000000E+00  0.000000E+00  0.000000E+00
   Multipole                     : -0.563545E-01  0.142621E+00  0.277143E-12
   Pulay + GGA                   : -0.143625E+00  0.132252E+00 -0.886036E-11
   ----------------------------------------------------------------
   Total forces(   1)            :  0.126076E-02 -0.344850E-03  0.486432E-11
  atom #    2
   Hellmann-Feynman              :  0.311489E+00  0.373819E+00 -0.432064E-11
   Ionic forces                  :  0.000000E+00  0.000000E+00  0.000000E+00
   Multipole                     :  0.372725E-01 -0.531576E-02  0.213954E-12
   Pulay + GGA                   : -0.350064E+00 -0.369609E+00  0.711341E-11
   ----------------------------------------------------------------
   Total forces(   2)            : -0.130247E-02 -0.110565E-02  0.300672E-11
  atom #    3
   Hellmann-Feynman              : -0.160956E+01 -0.882102E+01  0.105205E-10
   Ionic forces                  :  0.000000E+00  0.000000E+00  0.000000E+00
   Multipole                     : -0.946586E-01  0.361059E+00 -0.321008E-12
   Pulay + GGA                   :  0.170364E+01  0.846012E+01 -0.128938E-10
   ----------------------------------------------------------------
   Total forces(   3)            : -0.587184E-03  0.158791E-03 -0.269426E-11
  atom #    4
   Hellmann-Feynman              :  0.461554E-01  0.852492E-02  0.150196E-13
   Ionic forces                  :  0.000000E+00  0.000000E+00  0.000000E+00
   Multipole                     : -0.196505E-01 -0.232303E-01  0.445318E-13
   Pulay + GGA                   : -0.238350E-01  0.157881E-01  0.834383E-13
   ----------------------------------------------------------------
   Total forces(   4)            :  0.266992E-02  0.108265E-02  0.142990E-12
  atom #    5
   Hellmann-Feynman              : -0.414225E-02 -0.200218E-01  0.147653E-01
   Ionic forces                  :  0.000000E+00  0.000000E+00  0.000000E+00
   Multipole                     :  0.376108E-02  0.629004E-02 -0.368830E-01
   Pulay + GGA                   :  0.102685E-03  0.128756E-01  0.215138E-01
   ----------------------------------------------------------------
   Total forces(   5)            : -0.278489E-03 -0.856219E-03 -0.603947E-03
  atom #    6
   Hellmann-Feynman              : -0.414225E-02 -0.200218E-01 -0.147653E-01
   Ionic forces                  :  0.000000E+00  0.000000E+00  0.000000E+00
   Multipole                     :  0.376108E-02  0.629004E-02  0.368830E-01
   Pulay + GGA                   :  0.102685E-03  0.128756E-01 -0.215138E-01
   ----------------------------------------------------------------
   Total forces(   6)            : -0.278489E-03 -0.856219E-03  0.603947E-03
  atom #    7
   Hellmann-Feynman              : -0.231937E-01  0.250066E-01 -0.733060E-12
   Ionic forces                  :  0.000000E+00  0.000000E+00  0.000000E+00
   Multipole                     :  0.148219E-02 -0.395315E-01 -0.757446E-13
   Pulay + GGA                   :  0.210414E-01  0.145074E-01  0.905969E-13
   ----------------------------------------------------------------
   Total forces(   7)            : -0.670131E-03 -0.175001E-04 -0.718207E-12
  atom #    8
   Hellmann-Feynman              : -0.139623E-01  0.131777E-01  0.644884E-02
   Ionic forces                  :  0.000000E+00  0.000000E+00  0.000000E+00
   Multipole                     :  0.178454E-01  0.213573E-02 -0.264634E-01
   Pulay + GGA                   : -0.424734E-02 -0.142839E-01  0.194841E-01
   ----------------------------------------------------------------
   Total forces(   8)            : -0.364326E-03  0.102951E-02 -0.530513E-03
  atom #    9
   Hellmann-Feynman              : -0.139623E-01  0.131777E-01 -0.644884E-02
   Ionic forces                  :  0.000000E+00  0.000000E+00  0.000000E+00
   Multipole                     :  0.178454E-01  0.213573E-02  0.264634E-01
   Pulay + GGA                   : -0.424734E-02 -0.142839E-01 -0.194841E-01
   ----------------------------------------------------------------
   Total forces(   9)            : -0.364326E-03  0.102951E-02  0.530513E-03


  Self-consistency convergence accuracy:
  | Change of charge density      :  0.2088E-06
  | Change of sum of eigenvalues  : -0.2330E-05 eV
  | Change of total energy        :  0.1824E-08 eV
  | Change of forces              :  0.2882E+01 eV/A

  Writing Kohn-Sham eigenvalues.

  State    Occupation    Eigenvalue [Ha]    Eigenvalue [eV]
      1       2.00000         -18.750668         -510.23162
      2       2.00000          -9.931927         -270.26148
      3       2.00000          -9.875782         -268.73369
      4       2.00000          -0.930334          -25.31567
      5       2.00000          -0.679625          -18.49355
      6       2.00000          -0.549004          -14.93915
      7       2.00000          -0.466357          -12.69021
      8       2.00000          -0.414396          -11.27630
      9       2.00000          -0.358383           -9.75211
     10       2.00000          -0.339548           -9.23957
     11       2.00000          -0.320175           -8.71240
     12       2.00000          -0.291397           -7.92931
     13       2.00000          -0.228159           -6.20851
     14       0.00000          -0.016025           -0.43606
     15       0.00000           0.007871            0.21419
     16       0.00000           0.027712            0.75409
     17       0.00000           0.029972            0.81559
     18       0.00000           0.054828            1.49194
     19       0.00000           0.073759            2.00709
     20       0.00000           0.096829            2.63486
     21       0.00000           0.114788            3.12355
     22       0.00000           0.117270            3.19108
     23       0.00000           0.119688            3.25688
     24       0.00000           0.140438            3.82151
     25       0.00000           0.157632            4.28940
     26       0.00000           0.173207            4.71321
     27       0.00000           0.179023            4.87146
     28       0.00000           0.181275            4.93273
     29       0.00000           0.213806            5.81795
     30       0.00000           0.215800            5.87223
     31       0.00000           0.217416            5.91618

  Highest occupied state (VBM) at     -6.20851192 eV
  | Occupation number:      2.00000000

  Lowest unoccupied state (CBM) at    -0.43606211 eV
  | Occupation number:      0.00000000

  Overall HOMO-LUMO gap:      5.77244982 eV.

  Self-consistency cycle converged.

  End self-consistency iteration #     8       :  max(cpu_time)    wall_clock(cpu1)
  | Time for this iteration                    :        0.230 s           0.227 s
  | Charge density & force component update    :        0.114 s           0.111 s
  | Density mixing                             :        0.001 s           0.001 s
  | Hartree multipole update                   :        0.004 s           0.004 s
  | Hartree multipole summation                :        0.042 s           0.041 s
  | Integration                                :        0.049 s           0.050 s
  | Solution of K.-S. eqns.                    :        0.019 s           0.019 s
  | Total energy evaluation                    :        0.000 s           0.000 s

  Partial memory accounting:
  | Current value for overall tracked memory usage:
  |   Minimum:        0.600 MB (on task 40)
  |   Maximum:        0.635 MB (on task  0)
  |   Average:        0.624 MB
  | Peak value for overall tracked memory usage:
  |   Minimum:        6.462 MB (on task 40 after allocating hessian_basis_wave)
  |   Maximum:        6.497 MB (on task  0 after allocating hessian_basis_wave)
  |   Average:        6.486 MB
  | Largest tracked array allocation so far:
  |   Minimum:        3.197 MB (hessian_basis_wave on task  0)
  |   Maximum:        3.197 MB (hessian_basis_wave on task  0)
  |   Average:        3.197 MB
  Note:  These values currently only include a subset of arrays which are explicitly tracked.
  The "true" memory usage will be greater.
------------------------------------------------------------
  Removing unitary transformations (pure translations, rotations) from forces on atoms.
  Atomic forces before filtering:
  | Net force on center of mass :   0.852647E-04  0.120018E-03  0.196727E-11 eV/A
  | Net torque on center of mass:   0.971240E-13 -0.425281E-11 -0.420371E-03 eV
  Atomic forces after filtering:
  | Net force on center of mass :   0.130669E-18  0.000000E+00  0.000000E+00 eV/A
  | Net torque on center of mass:   0.368783E-18  0.460979E-18  0.645370E-18 eV

  Energy and forces in a compact form:
  | Total energy uncorrected      :         -0.421564694129773E+04 eV
  | Total energy corrected        :         -0.421564694129773E+04 eV  <-- do not rely on this value for anything but (periodic) metals
  | Electronic free energy        :         -0.421564694129773E+04 eV
  Total atomic forces (unitary forces cleaned) [eV/Ang]:
  |    1          0.126226996924760E-02         -0.338222414809821E-03          0.444757042859134E-11
  |    2         -0.132237741173039E-02         -0.112518990221261E-02          0.281454903717498E-11
  |    3         -0.589803056357365E-03          0.112318606620115E-03         -0.245805147649823E-11
  |    4          0.265369569683962E-02          0.101939432943601E-02          0.523873894497527E-12
  |    5         -0.312926777070076E-03         -0.874832326341247E-03         -0.603947442494676E-03
  |    6         -0.312926778167660E-03         -0.874832326411049E-03          0.603947440704114E-03
  |    7         -0.680978373830063E-03          0.102825130821357E-04         -0.146533395587593E-11
  |    8         -0.348476634116512E-03          0.103554076045104E-02         -0.530512681333071E-03
  |    9         -0.348476634815151E-03          0.103554076018542E-02          0.530512679261026E-03

  ------------------------------------ 
  Start decomposition of the XC Energy 
  ------------------------------------ 
  X and C from original XC functional choice 
  Hartree-Fock Energy :          0.000000000 Ha              0.000000000 eV
  X Energy            :        -20.628183155 Ha           -561.321423361 eV
  C Energy            :         -0.839839108 Ha            -22.853184889 eV
  Total XC Energy     :        -21.468022263 Ha           -584.174608250 eV
  ------------------------------------ 
  LDA X and C from self-consistent density 
  X Energy LDA        :        -18.697968243 Ha           -508.797603242 eV
  C Energy LDA        :         -1.649780225 Ha            -44.892804040 eV
  ------------------------------------ 
  End decomposition of the XC Energy 
  ------------------------------------ 

------------------------------------------------------------
  Relaxation / MD: End force evaluation.       :  max(cpu_time)    wall_clock(cpu1)
  | Time for this force evaluation             :        1.178 s           1.228 s

------------------------------------------------------------
  Geometry optimization: Attempting to predict improved coordinates.

  Removing unitary transformations (pure translations, rotations) from forces on atoms.
  Atomic forces before filtering:
  | Net force on center of mass :   0.130669E-18  0.000000E+00  0.000000E+00 eV/A
  | Net torque on center of mass:   0.368783E-18  0.460979E-18  0.645370E-18 eV
  Atomic forces after filtering:
  | Net force on center of mass :   0.217781E-18  0.000000E+00  0.871124E-19 eV/A
  | Net torque on center of mass:   0.000000E+00  0.276587E-18  0.875860E-18 eV
  Net remaining forces (excluding translations, rotations) in present geometry:
  || Forces on atoms   || =   0.265370E-02 eV/A.
  Maximum force component is  0.265370E-02 eV/A.
  Present geometry is converged.

------------------------------------------------------------
  Final atomic structure:
                         x [A]             y [A]             z [A]
            atom         1.17158485       -0.40364692       -0.00000000  C
            atom        -0.00162424        0.55629482       -0.00000000  C
            atom        -1.20888732       -0.21861318        0.00000000  O
            atom        -1.96137431        0.39138397       -0.00000000  H
            atom         0.04002162        1.20784288        0.89182796  H
            atom         0.04002162        1.20784288       -0.89182796  H
            atom         2.11993909        0.15028086        0.00000000  H
            atom         1.14499834       -1.04655066        0.88960805  H
            atom         1.14499834       -1.04655066       -0.88960805  H
------------------------------------------------------------

------------------------------------------------------------------------------
  Final output of selected total energy values:

  The following output summarizes some interesting total energy values
  at the end of a run (AFTER all relaxation, molecular dynamics, etc.).

  | Total energy of the DFT / Hartree-Fock s.c.f. calculation      :          -4215.646941298 eV
  | Final zero-broadening corrected energy (caution - metals only) :          -4215.646941298 eV
  | For reference only, the value of 1 Hartree used in FHI-aims is :             27.211384500 eV

  Before relying on these values, please be sure to understand exactly which
  total energy value is referred to by a given number. Different objects may
  all carry the same name 'total energy'. Definitions:

  Total energy of the DFT / Hartree-Fock s.c.f. calculation:
  | Note that this energy does not include ANY quantities calculated after the
  | s.c.f. cycle, in particular not ANY RPA, MP2, etc. many-body perturbation terms.

  Final zero-broadening corrected energy:
  | For metallic systems only, a broadening of the occupation numbers at the Fermi
  | level can be extrapolated back to zero broadening by an electron-gas inspired
  | formula. For all systems that are not real metals, this value can be
  | meaningless and should be avoided.

------------------------------------------------------------------------------
  Methods described in the following list of references were used in this FHI-aims run.
  If you publish the results, please make sure to cite these reference if they apply.
  FHI-aims is an academic code, and for our developers (often, Ph.D. students
  and postdocs), scientific credit in the community is essential.
  Thank you for helping us!

  For any use of FHI-aims, please cite:

    Volker Blum, Ralf Gehrke, Felix Hanke, Paula Havu, Ville Havu,
    Xinguo Ren, Karsten Reuter, and Matthias Scheffler
    'Ab initio molecular simulations with numeric atom-centered orbitals'
    Computer Physics Communications 180, 2175-2196 (2009)
    http://dx.doi.org/10.1016/j.cpc.2009.06.022


  The ELSI infrastructure was used in your run to solve the Kohn-Sham electronic structure.
  Please check out http://elsi-interchange.org to learn more.
  If scalability is important for your project, please acknowledge ELSI by citing:

    V. W-z. Yu, F. Corsetti, A. Garcia, W. P. Huhn, M. Jacquelin, W. Jia,
    B. Lange, L. Lin, J. Lu, W. Mi, A. Seifitokaldani, A. Vazquez-Mayagoitia,
    C. Yang, H. Yang, and V. Blum
    'ELSI: A unified software interface for Kohn-Sham electronic structure solvers'
    Computer Physics Communications 222, 267-285 (2018).
    http://dx.doi.org/10.1016/j.cpc.2017.09.007


  For the real-space grid partitioning and parallelization used in this calculation, please cite:

    Ville Havu, Volker Blum, Paula Havu, and Matthias Scheffler,
    'Efficient O(N) integration for all-electron electronic structure calculation'
    'using numerically tabulated basis functions'
    Journal of Computational Physics 228, 8367-8379 (2009).
    http://dx.doi.org/10.1016/j.jcp.2009.08.008

  Of course, there are many other important community references, e.g., those cited in the
  above references. Our list is limited to references that describe implementations in the
  FHI-aims code. The reason is purely practical (length of this list) - please credit others as well.

------------------------------------------------------------
          Leaving FHI-aims.
          Date     :  20201010, Time     :  200556.600

          Computational steps:
          | Number of self-consistency cycles          :           54
          | Number of SCF (re)initializations          :            5
          | Number of relaxation steps                 :            4

          Detailed time accounting                     :  max(cpu_time)    wall_clock(cpu1)
          | Total time                                 :        9.015 s           9.511 s
          | Preparation time                           :        0.233 s           0.233 s
          | Boundary condition initalization           :        0.000 s           0.001 s
          | Grid partitioning                          :        0.363 s           0.364 s
          | Preloading free-atom quantities on grid    :        0.063 s           0.063 s
          | Free-atom superposition energy             :        0.018 s           0.018 s
          | Total time for integrations                :        2.850 s           2.846 s
          | Total time for solution of K.-S. equations :        1.862 s           1.964 s
          | Total time for EV reorthonormalization     :        0.009 s           0.009 s
          | Total time for density & force components  :        2.049 s           1.950 s
          | Total time for mixing                      :        0.051 s           0.062 s
          | Total time for Hartree multipole update    :        0.208 s           0.209 s
          | Total time for Hartree multipole sum       :        0.931 s           0.937 s
          | Total time for total energy evaluation     :        0.009 s           0.028 s

          Partial memory accounting:
          | Residual value for overall tracked memory usage across tasks:     0.000000 MB (should be 0.000000 MB)
          | Peak values for overall tracked memory usage:
          |   Minimum:        6.462 MB (on task 40 after allocating hessian_basis_wave)
          |   Maximum:        6.497 MB (on task  0 after allocating hessian_basis_wave)
          |   Average:        6.486 MB
          | Largest tracked array allocation:
          |   Minimum:        3.197 MB (hessian_basis_wave on task  0)
          |   Maximum:        3.197 MB (hessian_basis_wave on task  0)
          |   Average:        3.197 MB
          Note:  These values currently only include a subset of arrays which are explicitly tracked.
          The "true" memory usage will be greater.

          Have a nice day.
------------------------------------------------------------
